============================== echo of input deck ==============================
echo
title "total energy of benzene, B3LYP/3-21G"

start c6h6-b3lyp

geometry
 C    0.99261000     0.99261000     0.00000000
 C   -1.35593048     0.36332048     0.00000000
 C    0.36332048    -1.35593048     0.00000000
 C   -0.99261000    -0.99261000     0.00000000
 C    1.35593048    -0.36332048     0.00000000
 C   -0.36332048     1.35593048     0.00000000
 H    1.75792000     1.75792000     0.00000000
 H   -2.40136338     0.64344338     0.00000000
 H    0.64344338    -2.40136338     0.00000000
 H   -1.75792000    -1.75792000     0.00000000
 H    2.40136338    -0.64344338     0.00000000
 H   -0.64344338     2.40136338     0.00000000
end

basis bse
* library 3-21G
end

dft
  xc b3lyp
end

task dft energy
task dft optimize
task dft freq
================================================================================

         Total DFT energy =     -230.975522660841
         Total DFT energy =   -230.975522660841
@ Step       Energy      Delta E   Gmax     Grms     Xrms     Xmax   Walltime
@ ---- ---------------- -------- -------- -------- -------- -------- --------
@    0    -230.97552266  0.0D+00  0.00609  0.00206  0.00000  0.00000      2.7
         Total DFT energy =     -230.975757866830
         Total DFT energy =   -230.975757866830
@    1    -230.97575787 -2.4D-04  0.00039  0.00013  0.00661  0.01253      4.2
         Total DFT energy =     -230.975758777108

 Vector   53  Occ=0.000000D+00  E= 1.109069D+00  Symmetry=a2g

 Vector   54  Occ=0.000000D+00  E= 1.115263D+00  Symmetry=e1u

 Vector   55  Occ=0.000000D+00  E= 1.115263D+00  Symmetry=e1u

 Vector   56  Occ=0.000000D+00  E= 1.300853D+00  Symmetry=e1u

 Vector   57  Occ=0.000000D+00  E= 1.300853D+00  Symmetry=e1u

 Vector   58  Occ=0.000000D+00  E= 1.328795D+00  Symmetry=a1g

 Vector   59  Occ=0.000000D+00  E= 1.452095D+00  Symmetry=b1u

 Vector   60  Occ=0.000000D+00  E= 1.465723D+00  Symmetry=e2g

 Vector   61  Occ=0.000000D+00  E= 1.465723D+00  Symmetry=e2g

 Vector   62  Occ=0.000000D+00  E= 1.546510D+00  Symmetry=e1u

 Vector   63  Occ=0.000000D+00  E= 1.546510D+00  Symmetry=e1u

 Vector   64  Occ=0.000000D+00  E= 1.890117D+00  Symmetry=e2g

 Vector   65  Occ=0.000000D+00  E= 1.890117D+00  Symmetry=e2g

 Vector   66  Occ=0.000000D+00  E= 2.474250D+00  Symmetry=b1u

         Total DFT energy =   -230.975758777108
@    2    -230.97575878 -9.1D-07  0.00001  0.00000  0.00050  0.00092      5.4
@    2    -230.97575878 -9.1D-07  0.00001  0.00000  0.00050  0.00092      5.4

 Output coordinates in angstroms (scale by  1.889725989 to convert to a.u.)

  No.       Tag          Charge          X              Y              Z
 ---- ---------------- ---------- -------------- -------------- --------------
    1 C                    6.0000     0.98804779     0.98804779     0.00000000
    2 C                    6.0000    -1.34969838     0.36165059     0.00000000
    3 C                    6.0000     0.36165059    -1.34969838     0.00000000
    4 C                    6.0000    -0.98804779    -0.98804779     0.00000000
    5 C                    6.0000     1.34969838    -0.36165059     0.00000000
    6 C                    6.0000    -0.36165059     1.34969838     0.00000000
    7 H                    1.0000     1.75464691     1.75464691     0.00000000
    8 H                    1.0000    -2.39689225     0.64224534     0.00000000
    9 H                    1.0000     0.64224534    -2.39689225     0.00000000
   10 H                    1.0000    -1.75464691    -1.75464691     0.00000000
   11 H                    1.0000     2.39689225    -0.64224534     0.00000000
   12 H                    1.0000    -0.64224534     2.39689225     0.00000000

         Total DFT energy =     -230.975764292719

                       DFT Final Molecular Orbital Analysis
                       ------------------------------------

 Vector    1  Occ=2.000000D+00  E=-1.012833D+01

 Vector    2  Occ=2.000000D+00  E=-1.012769D+01

 Vector    3  Occ=2.000000D+00  E=-1.012769D+01

 Vector    4  Occ=2.000000D+00  E=-1.012655D+01

 Vector    5  Occ=2.000000D+00  E=-1.012655D+01

 Vector    6  Occ=2.000000D+00  E=-1.012550D+01

 Vector    7  Occ=2.000000D+00  E=-8.555133D-01

 Vector    8  Occ=2.000000D+00  E=-7.462046D-01

 Vector    9  Occ=2.000000D+00  E=-7.462042D-01

 Vector   10  Occ=2.000000D+00  E=-6.047946D-01

 Vector   11  Occ=2.000000D+00  E=-6.047946D-01

 Vector   12  Occ=2.000000D+00  E=-5.283730D-01

 Vector   13  Occ=2.000000D+00  E=-4.606514D-01

 Vector   14  Occ=2.000000D+00  E=-4.527128D-01

 Vector   15  Occ=2.000000D+00  E=-4.261331D-01

 Vector   16  Occ=2.000000D+00  E=-4.261324D-01

 Vector   17  Occ=2.000000D+00  E=-3.662013D-01

 Vector   18  Occ=2.000000D+00  E=-3.461514D-01

 Vector   19  Occ=2.000000D+00  E=-3.461514D-01

 Vector   20  Occ=2.000000D+00  E=-2.510668D-01

 Vector   21  Occ=2.000000D+00  E=-2.510659D-01

 Vector   22  Occ=0.000000D+00  E= 5.258018D-03

 Vector   23  Occ=0.000000D+00  E= 5.258039D-03

 Vector   24  Occ=0.000000D+00  E= 1.065145D-01

 Vector   25  Occ=0.000000D+00  E= 1.643285D-01

 Vector   26  Occ=0.000000D+00  E= 1.643291D-01

 Vector   27  Occ=0.000000D+00  E= 1.655263D-01

 Vector   28  Occ=0.000000D+00  E= 2.065630D-01

 Vector   29  Occ=0.000000D+00  E= 2.065630D-01

 Vector   30  Occ=0.000000D+00  E= 2.126117D-01

 Vector   31  Occ=0.000000D+00  E= 3.245792D-01

 Vector   32  Occ=0.000000D+00  E= 3.245797D-01

 Vector   33  Occ=0.000000D+00  E= 3.372180D-01

 Vector   34  Occ=0.000000D+00  E= 3.372190D-01

 Vector   35  Occ=0.000000D+00  E= 5.768922D-01

 Vector   36  Occ=0.000000D+00  E= 5.776166D-01

 Vector   37  Occ=0.000000D+00  E= 6.672326D-01

 Vector   38  Occ=0.000000D+00  E= 6.893725D-01

 Vector   39  Occ=0.000000D+00  E= 6.959764D-01

 Vector   40  Occ=0.000000D+00  E= 7.389365D-01

 Vector   41  Occ=0.000000D+00  E= 7.389366D-01

 Vector   42  Occ=0.000000D+00  E= 7.873289D-01

 Vector   43  Occ=0.000000D+00  E= 7.873315D-01

 Vector   44  Occ=0.000000D+00  E= 8.047044D-01

 Vector   45  Occ=0.000000D+00  E= 8.047046D-01

 Vector   46  Occ=0.000000D+00  E= 8.324449D-01

 Vector   47  Occ=0.000000D+00  E= 8.324449D-01

 Vector   48  Occ=0.000000D+00  E= 8.840966D-01

 Vector   49  Occ=0.000000D+00  E= 9.063734D-01

 Vector   50  Occ=0.000000D+00  E= 9.713300D-01

 Vector   51  Occ=0.000000D+00  E= 1.010164D+00

 Vector   52  Occ=0.000000D+00  E= 1.010164D+00

 Vector   53  Occ=0.000000D+00  E= 1.109070D+00

 Vector   54  Occ=0.000000D+00  E= 1.115263D+00

 Vector   55  Occ=0.000000D+00  E= 1.115265D+00

 Vector   56  Occ=0.000000D+00  E= 1.300853D+00

 Vector   57  Occ=0.000000D+00  E= 1.300859D+00

 Vector   58  Occ=0.000000D+00  E= 1.328794D+00

 Vector   59  Occ=0.000000D+00  E= 1.452096D+00

 Vector   60  Occ=0.000000D+00  E= 1.465723D+00

 Vector   61  Occ=0.000000D+00  E= 1.465723D+00

 Vector   62  Occ=0.000000D+00  E= 1.546511D+00

 Vector   63  Occ=0.000000D+00  E= 1.546521D+00

 Vector   64  Occ=0.000000D+00  E= 1.890115D+00

 Vector   65  Occ=0.000000D+00  E= 1.890117D+00

 Vector   66  Occ=0.000000D+00  E= 2.474254D+00

     Multipole analysis of the density
     ---------------------------------

     L   x y z        total         alpha         beta         nuclear
     -   - - -        -----         -----         ----         -------
     0   0 0 0     -0.000000    -21.000000    -21.000000     42.000000

     1   1 0 0      0.000000      0.000000      0.000000      0.000000
     1   0 1 0      0.000000      0.000000      0.000000      0.000000
     1   0 0 1      0.000000      0.000000      0.000000      0.000000

     2   2 0 0    -23.187550   -107.329185   -107.329185    191.470820
     2   1 1 0      0.000001      0.000001      0.000001     -0.000000
     2   1 0 1     -0.000000     -0.000000     -0.000000      0.000000
     2   0 2 0    -23.187550   -107.329185   -107.329185    191.470820
     2   0 1 1      0.000000      0.000000      0.000000      0.000000

 Zero-Point correction to Energy  =   63.771 kcal/mol  (  0.101626 au)
 Thermal correction to Energy     =   66.467 kcal/mol  (  0.105922 au)
 Thermal correction to Enthalpy   =   67.059 kcal/mol  (  0.106866 au)
 Total Entropy                    =   63.788 cal/mol-K
   - Translational                =   38.962 cal/mol-K (mol. weight =  78.0469)
   - Rotational                   =   20.715 cal/mol-K (symmetry #  =       12)
   - Vibrational                  =    4.111 cal/mol-K
   - Translational                  =    2.979 cal/mol-K
   - Rotational                     =    2.979 cal/mol-K
   - Vibrational                    =   10.683 cal/mol-K
 P.Frequency       -0.00        0.00        0.00        0.00        0.00        0.00
 P.Frequency      423.19      423.20      647.75      647.76      698.89      754.39
 P.Frequency      878.12      878.13     1007.87     1007.87     1015.02     1048.29
 P.Frequency     1064.41     1068.90     1068.91     1228.20     1238.05     1238.05
 P.Frequency     1316.59     1436.67     1540.31     1540.31     1627.25     1627.25
 P.Frequency     3183.01     3191.75     3191.75     3208.21     3208.21     3221.52

 Normal Eigenvalue ||           Projected Infra Red Intensities
  Mode   [cm**-1]  || [atomic units] [(debye/angs)**2] [(KM/mol)] [arbitrary]
 ------ ---------- || -------------- ----------------- ---------- -----------
    1       -0.000 ||    0.000000           0.000         0.000       0.000
    2        0.000 ||    0.000000           0.000         0.000       0.000
    3        0.000 ||    0.000000           0.000         0.000       0.000
    4        0.000 ||    0.000000           0.000         0.000       0.000
    5        0.000 ||    0.000000           0.000         0.000       0.000
    6        0.000 ||    0.000000           0.000         0.000       0.000
    7      423.192 ||    0.000000           0.000         0.000       0.000
    8      423.197 ||    0.000000           0.000         0.000       0.000
    9      647.753 ||    0.000000           0.000         0.000       0.000
   10      647.758 ||    0.000000           0.000         0.000       0.000
   11      698.887 ||    0.120602           2.782       117.569     195.460
   12      754.393 ||    0.000000           0.000         0.000       0.000
   13      878.123 ||    0.000000           0.000         0.000       0.000
   14      878.129 ||    0.000000           0.000         0.000       0.000
   15     1007.865 ||    0.000000           0.000         0.000       0.000
   16     1007.868 ||    0.000000           0.000         0.000       0.000
   17     1015.016 ||    0.000000           0.000         0.000       0.000
   18     1048.289 ||    0.000000           0.000         0.000       0.000
   19     1064.414 ||    0.000000           0.000         0.000       0.000
   20     1068.904 ||    0.004133           0.095         4.029       6.698
   21     1068.915 ||    0.004133           0.095         4.029       6.698
   22     1228.198 ||    0.000000           0.000         0.000       0.000
   23     1238.051 ||    0.000000           0.000         0.000       0.000
   24     1238.051 ||    0.000000           0.000         0.000       0.000
   25     1316.590 ||    0.000000           0.000         0.000       0.000
   26     1436.668 ||    0.000000           0.000         0.000       0.000
   27     1540.311 ||    0.012006           0.277        11.704      19.458
   28     1540.314 ||    0.012005           0.277        11.703      19.457
   29     1627.251 ||    0.000000           0.000         0.000       0.000
   30     1627.251 ||    0.000000           0.000         0.000       0.000
   31     3183.010 ||    0.000000           0.000         0.000       0.000
   32     3191.746 ||    0.000000           0.000         0.000       0.000
   33     3191.747 ||    0.000000           0.000         0.000       0.000
   34     3208.206 ||    0.034622           0.799        33.751      56.111
   35     3208.213 ||    0.034626           0.799        33.755      56.119
   36     3221.520 ||    0.000000           0.000         0.000       0.000
 ----------------------------------------------------------------------------

 Total times  cpu:       48.8s     wall:       57.5s
