 Output coordinates in angstroms (scale by  1.889725989 to convert to a.u.)

  No.       Tag          Charge          X              Y              Z
 ---- ---------------- ---------- -------------- -------------- --------------
    1 N                    7.0000     0.00000000     0.00000000    -0.54500000
    2 N                    7.0000     0.00000000     0.00000000     0.54500000

         Total DFT energy =     -109.517274325984

                       DFT Final Molecular Orbital Analysis
                       ------------------------------------

 Vector    1  Occ=2.000000D+00  E=-1.425970D+01

 Vector   35  Occ=0.000000D+00  E= 2.016422D+00

 Vector   36  Occ=0.000000D+00  E= 2.241229D+00

 Vector   37  Occ=0.000000D+00  E= 2.241229D+00

 Vector   38  Occ=0.000000D+00  E= 2.308688D+00

 Vector   39  Occ=0.000000D+00  E= 2.308688D+00

 Vector   40  Occ=0.000000D+00  E= 2.437303D+00

 Vector   41  Occ=0.000000D+00  E= 2.437303D+00

 Vector   42  Occ=0.000000D+00  E= 2.770319D+00

 Vector   43  Occ=0.000000D+00  E= 2.770319D+00

 Vector   44  Occ=0.000000D+00  E= 2.778047D+00

 Vector   45  Occ=0.000000D+00  E= 2.778048D+00

 Vector   46  Occ=0.000000D+00  E= 2.894100D+00

 Vector   47  Occ=0.000000D+00  E= 2.894102D+00

 Vector   48  Occ=0.000000D+00  E= 2.897464D+00

 Vector   49  Occ=0.000000D+00  E= 3.008216D+00

 Vector   50  Occ=0.000000D+00  E= 3.008216D+00

 Vector   51  Occ=0.000000D+00  E= 3.204899D+00

 Vector   52  Occ=0.000000D+00  E= 3.317977D+00

 Vector   53  Occ=0.000000D+00  E= 3.391496D+00

 Vector   54  Occ=0.000000D+00  E= 3.418024D+00

 Vector   55  Occ=0.000000D+00  E= 3.418024D+00

 Vector   56  Occ=0.000000D+00  E= 3.523421D+00

 Vector   57  Occ=0.000000D+00  E= 3.523421D+00

 Vector   58  Occ=0.000000D+00  E= 3.761948D+00

 Vector   59  Occ=0.000000D+00  E= 3.761948D+00

 Vector   60  Occ=0.000000D+00  E= 3.806579D+00

 Vector   61  Occ=0.000000D+00  E= 3.938131D+00

 Vector   62  Occ=0.000000D+00  E= 3.938131D+00

 Vector   63  Occ=0.000000D+00  E= 5.059261D+00

 Vector   64  Occ=0.000000D+00  E= 5.241317D+00

 Vector   65  Occ=0.000000D+00  E= 5.241317D+00

 Vector   66  Occ=0.000000D+00  E= 6.432080D+00

 Vector   67  Occ=0.000000D+00  E= 6.432080D+00

 Vector   68  Occ=0.000000D+00  E= 6.766812D+00

 Vector   69  Occ=0.000000D+00  E= 6.766814D+00

 Vector   70  Occ=0.000000D+00  E= 6.800676D+00

 Vector   71  Occ=0.000000D+00  E= 6.800681D+00

 Vector   72  Occ=0.000000D+00  E= 6.856839D+00

 Vector   73  Occ=0.000000D+00  E= 7.196419D+00

 Vector   74  Occ=0.000000D+00  E= 7.196421D+00

 Vector   75  Occ=0.000000D+00  E= 7.197140D+00

 Vector   76  Occ=0.000000D+00  E= 7.197140D+00

 Vector   77  Occ=0.000000D+00  E= 7.273482D+00

 Vector   78  Occ=0.000000D+00  E= 7.920241D+00

 Vector   79  Occ=0.000000D+00  E= 7.920241D+00

 Vector   80  Occ=0.000000D+00  E= 8.053842D+00

 Vector   81  Occ=0.000000D+00  E= 8.053842D+00

 Vector   82  Occ=0.000000D+00  E= 8.456749D+00

 Vector   83  Occ=0.000000D+00  E= 8.456749D+00

 Vector   84  Occ=0.000000D+00  E= 8.546586D+00

 Vector   85  Occ=0.000000D+00  E= 8.546591D+00

 Vector   86  Occ=0.000000D+00  E= 8.638961D+00

 Vector   87  Occ=0.000000D+00  E= 8.665969D+00

 Vector   88  Occ=0.000000D+00  E= 8.665969D+00

 Vector   89  Occ=0.000000D+00  E= 8.715496D+00

 Vector   90  Occ=0.000000D+00  E= 8.715503D+00

 Vector   91  Occ=0.000000D+00  E= 8.817099D+00

 Vector   92  Occ=0.000000D+00  E= 8.817099D+00

 Vector   93  Occ=0.000000D+00  E= 8.877506D+00

 Vector   94  Occ=0.000000D+00  E= 9.000751D+00

 Vector   95  Occ=0.000000D+00  E= 9.000753D+00

 Vector   96  Occ=0.000000D+00  E= 9.099246D+00

 Vector   97  Occ=0.000000D+00  E= 9.099246D+00

 Vector   98  Occ=0.000000D+00  E= 9.844156D+00

 Vector   99  Occ=0.000000D+00  E= 9.844156D+00

 Vector  100  Occ=0.000000D+00  E= 9.936128D+00

 Vector  101  Occ=0.000000D+00  E= 9.969460D+00

 Vector  102  Occ=0.000000D+00  E= 1.018942D+01

 Vector  103  Occ=0.000000D+00  E= 1.019570D+01

 Vector  104  Occ=0.000000D+00  E= 1.019571D+01

 Vector  105  Occ=0.000000D+00  E= 1.025816D+01

 Vector  106  Occ=0.000000D+00  E= 1.025816D+01

 Vector  107  Occ=0.000000D+00  E= 1.156531D+01

 Vector  108  Occ=0.000000D+00  E= 1.294606D+01

 Vector  109  Occ=0.000000D+00  E= 1.294606D+01

 Vector  110  Occ=0.000000D+00  E= 1.517579D+01

 Vector  111  Occ=0.000000D+00  E= 3.657367D+01

 Vector  112  Occ=0.000000D+00  E= 3.846383D+01

 Vector  113  Occ=0.000000D+00  E= 1.963781D+02

 Vector  114  Occ=0.000000D+00  E= 1.984783D+02

     Multipole analysis of the density
     ---------------------------------

     L   x y z        total         alpha         beta         nuclear
     -   - - -        -----         -----         ----         -------
     0   0 0 0     -0.000000     -7.000000     -7.000000     14.000000

     1   1 0 0      0.000000      0.000000      0.000000      0.000000
     1   0 1 0     -0.000000     -0.000000     -0.000000      0.000000
     1   0 0 1      0.000000      0.000000      0.000000      0.000000

     2   2 0 0     -7.534951     -3.767475     -3.767475      0.000000
     2   1 1 0      0.000000      0.000000      0.000000      0.000000
     2   1 0 1      0.000000      0.000000      0.000000      0.000000
     2   0 2 0     -7.534951     -3.767475     -3.767475      0.000000
     2   0 1 1     -0.000000     -0.000000     -0.000000      0.000000

 Total times  cpu:        5.0s     wall:        5.0s
