 Output coordinates in angstroms (scale by  1.889725989 to convert to a.u.)

  No.       Tag          Charge          X              Y              Z
 ---- ---------------- ---------- -------------- -------------- --------------
    1 O                    8.0000     0.00000000     0.00000000     0.11970000
    2 H                    1.0000     0.00000000     0.76150000    -0.47900000
    3 H                    1.0000     0.00000000    -0.76150000    -0.47900000

         Total DFT energy =      -76.408954527608
  Root   1 singlet a              0.292105224 a.u.                7.9486 eV
     Dipole Oscillator Strength                    0.0130575666
  Root   2 singlet a              0.365546817 a.u.                9.9470 eV
     Dipole Oscillator Strength                    0.0000000000
  Root   3 singlet a              0.388866744 a.u.               10.5816 eV
     Dipole Oscillator Strength                    0.1038107322
  Root   4 singlet a              0.468495022 a.u.               12.7484 eV
     Dipole Oscillator Strength                    0.0786669515
  Root   5 singlet a              0.536008748 a.u.               14.5855 eV
     Dipole Oscillator Strength                    0.4540391916
  Root   6 singlet a              0.664562323 a.u.               18.0837 eV
     Dipole Oscillator Strength                    0.2601370642
  Root   7 singlet a              0.976352149 a.u.               26.5679 eV
     Dipole Oscillator Strength                    0.0000000000
  Root   8 singlet a              1.020208306 a.u.               27.7613 eV
     Dipole Oscillator Strength                    0.0338409338
  Root   9 singlet a              1.057644179 a.u.               28.7800 eV
     Dipole Oscillator Strength                    0.1225069450
  Root  10 singlet a              1.084399803 a.u.               29.5080 eV
     Dipole Oscillator Strength                    0.1651336700
                         Root   3
         Total DFT energy =      -76.408954441215
  Root   1 singlet a              0.292024263 a.u.                7.9464 eV
     Dipole Oscillator Strength                    0.0130412060
  Root   2 singlet a              0.365444864 a.u.                9.9443 eV
     Dipole Oscillator Strength                    0.0000000251
  Root   3 singlet a              0.388835034 a.u.               10.5807 eV
     Dipole Oscillator Strength                    0.1038471632
  Root   4 singlet a              0.468431740 a.u.               12.7467 eV
     Dipole Oscillator Strength                    0.0785667391
  Root   5 singlet a              0.535856824 a.u.               14.5814 eV
     Dipole Oscillator Strength                    0.4544025152
  Root   6 singlet a              0.664422186 a.u.               18.0799 eV
     Dipole Oscillator Strength                    0.2604455125
  Root   7 singlet a              0.976200160 a.u.               26.5638 eV
     Dipole Oscillator Strength                    0.0000001594
  Root   8 singlet a              1.020089985 a.u.               27.7581 eV
     Dipole Oscillator Strength                    0.0338710289
  Root   9 singlet a              1.057537758 a.u.               28.7771 eV
     Dipole Oscillator Strength                    0.1226703590
  Root  10 singlet a              1.084253686 a.u.               29.5041 eV
     Dipole Oscillator Strength                    0.1649080835
                         Root   3
         Total DFT energy =      -76.408954093095
  Root   1 singlet a              0.291944070 a.u.                7.9442 eV
     Dipole Oscillator Strength                    0.0130247172
  Root   2 singlet a              0.365343313 a.u.                9.9415 eV
     Dipole Oscillator Strength                    0.0000000979
  Root   3 singlet a              0.388803258 a.u.               10.5799 eV
     Dipole Oscillator Strength                    0.1038829422
  Root   4 singlet a              0.468367666 a.u.               12.7449 eV
     Dipole Oscillator Strength                    0.0784679001
  Root   5 singlet a              0.535706358 a.u.               14.5773 eV
     Dipole Oscillator Strength                    0.4547707586
  Root   6 singlet a              0.664282619 a.u.               18.0761 eV
     Dipole Oscillator Strength                    0.2607509870
  Root   7 singlet a              0.976051336 a.u.               26.5597 eV
     Dipole Oscillator Strength                    0.0000006194
  Root   8 singlet a              1.019970753 a.u.               27.7548 eV
     Dipole Oscillator Strength                    0.0338993764
  Root   9 singlet a              1.057430039 a.u.               28.7741 eV
     Dipole Oscillator Strength                    0.1228343561
  Root  10 singlet a              1.084107476 a.u.               29.5001 eV
     Dipole Oscillator Strength                    0.1646744040
                         Root   3
         Total DFT energy =      -76.408953483964
  Root   1 singlet a              0.291863331 a.u.                7.9420 eV
     Dipole Oscillator Strength                    0.0130080418
  Root   2 singlet a              0.365241248 a.u.                9.9387 eV
     Dipole Oscillator Strength                    0.0000002156
  Root   3 singlet a              0.388769552 a.u.               10.5790 eV
     Dipole Oscillator Strength                    0.1039172223
  Root   4 singlet a              0.468301519 a.u.               12.7431 eV
     Dipole Oscillator Strength                    0.0783706383
  Root   5 singlet a              0.535556905 a.u.               14.5733 eV
     Dipole Oscillator Strength                    0.4551427839
  Root   6 singlet a              0.664143509 a.u.               18.0723 eV
     Dipole Oscillator Strength                    0.2610529880
  Root   7 singlet a              0.975904523 a.u.               26.5557 eV
     Dipole Oscillator Strength                    0.0000013625
  Root   8 singlet a              1.019850173 a.u.               27.7515 eV
     Dipole Oscillator Strength                    0.0339269324
  Root   9 singlet a              1.057320877 a.u.               28.7712 eV
     Dipole Oscillator Strength                    0.1229939607
  Root  10 singlet a              1.083960433 a.u.               29.4961 eV
     Dipole Oscillator Strength                    0.1644362318
                         Root   3
         Total DFT energy =      -76.408952601188
  Root   1 singlet a              0.291780721 a.u.                7.9398 eV
     Dipole Oscillator Strength                    0.0129909282
  Root   2 singlet a              0.365137052 a.u.                9.9359 eV
     Dipole Oscillator Strength                    0.0000003788
  Root   3 singlet a              0.388733283 a.u.               10.5780 eV
     Dipole Oscillator Strength                    0.1039505014
  Root   4 singlet a              0.468232216 a.u.               12.7413 eV
     Dipole Oscillator Strength                    0.0782735074
  Root   5 singlet a              0.535406154 a.u.               14.5691 eV
     Dipole Oscillator Strength                    0.4555241193
  Root   6 singlet a              0.664002727 a.u.               18.0684 eV
     Dipole Oscillator Strength                    0.2613560215
  Root   7 singlet a              0.975757410 a.u.               26.5517 eV
     Dipole Oscillator Strength                    0.0000023900
  Root   8 singlet a              1.019726380 a.u.               27.7482 eV
     Dipole Oscillator Strength                    0.0339542221
         Total DFT energy =      -76.408951418376
         Total DFT energy =      -76.408949927558
         Total DFT energy =      -76.408948135455
         Total DFT energy =      -76.408945975305
         Total DFT energy =      -76.408943519267
         Total DFT energy =      -76.408940766639
         Total DFT energy =      -76.408937729018
         Total DFT energy =      -76.408934356958
         Total DFT energy =      -76.408930560743
         Total DFT energy =      -76.408926314305
         Total DFT energy =      -76.408921632386
         Total DFT energy =      -76.408916520319
         Total DFT energy =      -76.408910981361
         Total DFT energy =      -76.408904992760
         Total DFT energy =      -76.408898536384
         Total DFT energy =      -76.408891778155
         Total DFT energy =      -76.408884525613
         Total DFT energy =      -76.408876758109
         Total DFT energy =      -76.408868577709
         Total DFT energy =      -76.408859938234
         Total DFT energy =      -76.408850798176
         Total DFT energy =      -76.408840955615
         Total DFT energy =      -76.408830535406
         Total DFT energy =      -76.408819371149
         Total DFT energy =      -76.408807766866
         Total DFT energy =      -76.408795585772
         Total DFT energy =      -76.408782528612
         Total DFT energy =      -76.408768912052
         Total DFT energy =      -76.408754527395
         Total DFT energy =      -76.408739598782
         Total DFT energy =      -76.408724048180
         Total DFT energy =      -76.408707865075
         Total DFT energy =      -76.408691335695
         Total DFT energy =      -76.408674203567
         Total DFT energy =      -76.408656421472
         Total DFT energy =      -76.408637790650
         Total DFT energy =      -76.408618175952
         Total DFT energy =      -76.408598060404
         Total DFT energy =      -76.408577303725
         Total DFT energy =      -76.408555703132
         Total DFT energy =      -76.408533561324
         Total DFT energy =      -76.408510944227

 Vector   16  Occ=0.000000D+00  E= 1.781895D+00

 Vector   17  Occ=0.000000D+00  E= 2.263002D+00

 Vector   18  Occ=0.000000D+00  E= 2.552270D+00

 Vector   19  Occ=0.000000D+00  E= 3.544411D+00

  Root   4 singlet a              0.462584620 a.u.               12.5876 eV
     Dipole Oscillator Strength                    0.0742724410
  Root   5 singlet a              0.527929256 a.u.               14.3657 eV
     Dipole Oscillator Strength                    0.4798618456
  Root   6 singlet a              0.656631511 a.u.               17.8679 eV
     Dipole Oscillator Strength                    0.2750552709
  Root   7 singlet a              0.969313659 a.u.               26.3764 eV
     Dipole Oscillator Strength                    0.0002907890
  Root   8 singlet a              1.011739264 a.u.               27.5308 eV
     Dipole Oscillator Strength                    0.0347546109
  Root   9 singlet a              1.049226872 a.u.               28.5509 eV
     Dipole Oscillator Strength                    0.1325703400
  Root  10 singlet a              1.074804250 a.u.               29.2469 eV
     Dipole Oscillator Strength                    0.1477191605
                         Root   3
         Total DFT energy =      -76.408487570217

 Vector    1  Occ=2.000000D+00  E=-1.914078D+01

 Vector    2  Occ=2.000000D+00  E=-9.916908D-01

 Vector    3  Occ=2.000000D+00  E=-5.114335D-01

 Vector    4  Occ=2.000000D+00  E=-3.714617D-01

 Vector    5  Occ=2.000000D+00  E=-2.901949D-01

 Vector    6  Occ=0.000000D+00  E= 5.832653D-02

 Vector    7  Occ=0.000000D+00  E= 1.426919D-01

 Vector    8  Occ=0.000000D+00  E= 7.653534D-01

 Vector    9  Occ=0.000000D+00  E= 8.466295D-01

 Vector   10  Occ=0.000000D+00  E= 8.908420D-01

 Vector   11  Occ=0.000000D+00  E= 8.940871D-01

 Vector   12  Occ=0.000000D+00  E= 1.062475D+00

 Vector   13  Occ=0.000000D+00  E= 1.191515D+00

 Vector   14  Occ=0.000000D+00  E= 1.732151D+00

 Vector   15  Occ=0.000000D+00  E= 1.749695D+00

 Vector   16  Occ=0.000000D+00  E= 1.781967D+00

 Vector   17  Occ=0.000000D+00  E= 2.262519D+00

 Vector   18  Occ=0.000000D+00  E= 2.551613D+00

 Vector   19  Occ=0.000000D+00  E= 3.544229D+00

  Root   1 singlet a              0.286514310 a.u.                7.7965 eV
     Dipole Oscillator Strength                    0.0118814483
  Root   2 singlet a              0.358723136 a.u.                9.7614 eV
     Dipole Oscillator Strength                    0.0000454779
  Root   3 singlet a              0.384862027 a.u.               10.4726 eV
     Dipole Oscillator Strength                    0.1044272488
  Root   4 singlet a              0.462395757 a.u.               12.5824 eV
     Dipole Oscillator Strength                    0.0741848353
  Root   5 singlet a              0.527735131 a.u.               14.3604 eV
     Dipole Oscillator Strength                    0.4805998761
  Root   6 singlet a              0.656433174 a.u.               17.8625 eV
     Dipole Oscillator Strength                    0.2753848644
  Root   7 singlet a              0.969163121 a.u.               26.3723 eV
     Dipole Oscillator Strength                    0.0003031902
  Root   8 singlet a              1.011496934 a.u.               27.5242 eV
     Dipole Oscillator Strength                    0.0347632067
  Root   9 singlet a              1.048959072 a.u.               28.5436 eV
     Dipole Oscillator Strength                    0.1327830105
  Root  10 singlet a              1.074541067 a.u.               29.2398 eV
     Dipole Oscillator Strength                    0.1472280924
                         Root   3
         Total DFT energy =      -76.408463550248

 Vector    1  Occ=2.000000D+00  E=-1.914085D+01

 Vector    2  Occ=2.000000D+00  E=-9.915165D-01

 Vector    3  Occ=2.000000D+00  E=-5.113037D-01

 Vector    4  Occ=2.000000D+00  E=-3.714147D-01

 Vector    5  Occ=2.000000D+00  E=-2.901645D-01

 Vector    6  Occ=0.000000D+00  E= 5.821063D-02

 Vector    7  Occ=0.000000D+00  E= 1.425487D-01

 Vector    8  Occ=0.000000D+00  E= 7.652095D-01

 Vector    9  Occ=0.000000D+00  E= 8.462091D-01

 Vector   10  Occ=0.000000D+00  E= 8.908469D-01

 Vector   11  Occ=0.000000D+00  E= 8.940662D-01

 Vector   12  Occ=0.000000D+00  E= 1.062406D+00

 Vector   13  Occ=0.000000D+00  E= 1.191413D+00

 Vector   14  Occ=0.000000D+00  E= 1.732271D+00

 Vector   15  Occ=0.000000D+00  E= 1.749773D+00

 Vector   16  Occ=0.000000D+00  E= 1.782040D+00

 Vector   17  Occ=0.000000D+00  E= 2.262035D+00

 Vector   18  Occ=0.000000D+00  E= 2.550955D+00

 Vector   19  Occ=0.000000D+00  E= 3.544048D+00

  Root   1 singlet a              0.286360819 a.u.                7.7923 eV
     Dipole Oscillator Strength                    0.0118492440
  Root   2 singlet a              0.358540656 a.u.                9.7564 eV
     Dipole Oscillator Strength                    0.0000471884
  Root   3 singlet a              0.384726126 a.u.               10.4689 eV
     Dipole Oscillator Strength                    0.1044149440
  Root   4 singlet a              0.462205415 a.u.               12.5773 eV
     Dipole Oscillator Strength                    0.0740980692
  Root   5 singlet a              0.527541257 a.u.               14.3551 eV
     Dipole Oscillator Strength                    0.4813399285
  Root   6 singlet a              0.656234830 a.u.               17.8571 eV
     Dipole Oscillator Strength                    0.2757125749
  Root   7 singlet a              0.969013509 a.u.               26.3682 eV
     Dipole Oscillator Strength                    0.0003157067
  Root   8 singlet a              1.011253493 a.u.               27.5176 eV
     Dipole Oscillator Strength                    0.0347716235
  Root   9 singlet a              1.048688484 a.u.               28.5363 eV
     Dipole Oscillator Strength                    0.1329908544
  Root  10 singlet a              1.074277046 a.u.               29.2326 eV
     Dipole Oscillator Strength                    0.1467358523
                         Root   3
         Total DFT energy =      -76.408438826933

 Vector    1  Occ=2.000000D+00  E=-1.914091D+01

 Vector    2  Occ=2.000000D+00  E=-9.913410D-01

 Vector    3  Occ=2.000000D+00  E=-5.111741D-01

 Vector    4  Occ=2.000000D+00  E=-3.713666D-01

 Vector    5  Occ=2.000000D+00  E=-2.901338D-01

 Vector    6  Occ=0.000000D+00  E= 5.809402D-02

 Vector    7  Occ=0.000000D+00  E= 1.424049D-01

 Vector    8  Occ=0.000000D+00  E= 7.650664D-01

 Vector    9  Occ=0.000000D+00  E= 8.457854D-01

 Vector   10  Occ=0.000000D+00  E= 8.908519D-01

 Vector   11  Occ=0.000000D+00  E= 8.940456D-01

 Vector   12  Occ=0.000000D+00  E= 1.062337D+00

 Vector   13  Occ=0.000000D+00  E= 1.191309D+00

 Vector   14  Occ=0.000000D+00  E= 1.732392D+00

 Vector   15  Occ=0.000000D+00  E= 1.749852D+00

 Vector   16  Occ=0.000000D+00  E= 1.782114D+00

 Vector   17  Occ=0.000000D+00  E= 2.261549D+00

 Vector   18  Occ=0.000000D+00  E= 2.550295D+00

 Vector   19  Occ=0.000000D+00  E= 3.543866D+00

  Root   1 singlet a              0.286206332 a.u.                7.7881 eV
     Dipole Oscillator Strength                    0.0118172115
  Root   2 singlet a              0.358357207 a.u.                9.7514 eV
     Dipole Oscillator Strength                    0.0000489223
  Root   3 singlet a              0.384588527 a.u.               10.4652 eV
     Dipole Oscillator Strength                    0.1044015645
  Root   4 singlet a              0.462013176 a.u.               12.5720 eV
     Dipole Oscillator Strength                    0.0740119839
  Root   5 singlet a              0.527347206 a.u.               14.3499 eV
     Dipole Oscillator Strength                    0.4820865722
  Root   6 singlet a              0.656036053 a.u.               17.8517 eV
     Dipole Oscillator Strength                    0.2760396316
  Root   7 singlet a              0.968864482 a.u.               26.3642 eV
     Dipole Oscillator Strength                    0.0003285602
  Root   8 singlet a              1.011008417 a.u.               27.5110 eV
     Dipole Oscillator Strength                    0.0347790693
  Root   9 singlet a              1.048414507 a.u.               28.5288 eV
     Dipole Oscillator Strength                    0.1331958421
  Root  10 singlet a              1.074011613 a.u.               29.2254 eV
     Dipole Oscillator Strength                    0.1462415680
                         Root   3
         Total DFT energy =      -76.408413235465

                       DFT Final Molecular Orbital Analysis
                       ------------------------------------

 Vector    1  Occ=2.000000D+00  E=-1.914097D+01

 Vector    2  Occ=2.000000D+00  E=-9.911634D-01

 Vector    3  Occ=2.000000D+00  E=-5.110437D-01

 Vector    4  Occ=2.000000D+00  E=-3.713170D-01

 Vector    5  Occ=2.000000D+00  E=-2.901026D-01

 Vector    6  Occ=0.000000D+00  E= 5.797598D-02

 Vector    7  Occ=0.000000D+00  E= 1.422594D-01

 Vector    8  Occ=0.000000D+00  E= 7.649231D-01

 Vector    9  Occ=0.000000D+00  E= 8.453557D-01

 Vector   10  Occ=0.000000D+00  E= 8.908571D-01

 Vector   11  Occ=0.000000D+00  E= 8.940252D-01

 Vector   12  Occ=0.000000D+00  E= 1.062268D+00

 Vector   13  Occ=0.000000D+00  E= 1.191202D+00

 Vector   14  Occ=0.000000D+00  E= 1.732516D+00

 Vector   15  Occ=0.000000D+00  E= 1.749931D+00

 Vector   16  Occ=0.000000D+00  E= 1.782189D+00

 Vector   17  Occ=0.000000D+00  E= 2.261058D+00

 Vector   18  Occ=0.000000D+00  E= 2.549628D+00

 Vector   19  Occ=0.000000D+00  E= 3.543684D+00

  Root   1 singlet a              0.286049891 a.u.                7.7838 eV
     Dipole Oscillator Strength                    0.0117848286
  Root   2 singlet a              0.358171660 a.u.                9.7464 eV
     Dipole Oscillator Strength                    0.0000506838
  Root   3 singlet a              0.384448371 a.u.               10.4614 eV
     Dipole Oscillator Strength                    0.1043870100
  Root   4 singlet a              0.461817853 a.u.               12.5667 eV
     Dipole Oscillator Strength                    0.0739260503
  Root   5 singlet a              0.527151784 a.u.               14.3445 eV
     Dipole Oscillator Strength                    0.4828428814
  Root   6 singlet a              0.655835625 a.u.               17.8462 eV
     Dipole Oscillator Strength                    0.2763677614
  Root   7 singlet a              0.968715117 a.u.               26.3601 eV
     Dipole Oscillator Strength                    0.0003417390
  Root   8 singlet a              1.010760206 a.u.               27.5042 eV
     Dipole Oscillator Strength                    0.0347860111
  Root   9 singlet a              1.048135420 a.u.               28.5212 eV
     Dipole Oscillator Strength                    0.1333983596
  Root  10 singlet a              1.073743140 a.u.               29.2180 eV
     Dipole Oscillator Strength                    0.1457422676

     Multipole analysis of the density
     ---------------------------------

     L   x y z        total
     -   - - -        -----
     0   0 0 0     -0.000000

     1   1 0 0      0.000000
     1   0 1 0     -0.053369
     1   0 0 1      0.140669

     2   2 0 0     -6.145642
     2   1 1 0     -0.000000
     2   1 0 1      0.000000
     2   0 2 0     -6.227914
     2   0 1 1      0.095860

                         Root   3
 Total times  cpu:      156.2s     wall:      191.4s
