============================== echo of input deck ==============================
echo
start tddft_h2o

title "TDDFT H2O B3LYP/6-31G** QA TEST"

geometry
O     0.00000000     0.00000000     0.12982363
H     0.75933475     0.00000000    -0.46621158
H    -0.75933475     0.00000000    -0.46621158
end

basis
 O library 6-31G**
 H library 6-31G**
end

dft
 xc b3lyp
end

tddft
 nroots 10
end
task tddft energy
================================================================================

 Output coordinates in angstroms (scale by  1.889725989 to convert to a.u.)

  No.       Tag          Charge          X              Y              Z
 ---- ---------------- ---------- -------------- -------------- --------------
    1 O                    8.0000     0.00000000     0.00000000     0.11920704
    2 H                    1.0000     0.75933475     0.00000000    -0.47682817
    3 H                    1.0000    -0.75933475     0.00000000    -0.47682817

         Total DFT energy =      -76.418159042422

                       DFT Final Molecular Orbital Analysis
                       ------------------------------------

 Vector    1  Occ=2.000000D+00  E=-1.913288D+01  Symmetry=a1

 Vector    2  Occ=2.000000D+00  E=-9.959839D-01  Symmetry=a1

 Vector    3  Occ=2.000000D+00  E=-5.137816D-01  Symmetry=b1

 Vector    4  Occ=2.000000D+00  E=-3.693329D-01  Symmetry=a1

 Vector    5  Occ=2.000000D+00  E=-2.906710D-01  Symmetry=b2

 Vector    6  Occ=0.000000D+00  E= 6.822772D-02  Symmetry=a1

 Vector    7  Occ=0.000000D+00  E= 1.519623D-01  Symmetry=b1

 Vector    8  Occ=0.000000D+00  E= 7.577283D-01  Symmetry=b1

 Vector    9  Occ=0.000000D+00  E= 8.095699D-01  Symmetry=a1

 Vector   10  Occ=0.000000D+00  E= 8.924126D-01  Symmetry=b2

 Vector   11  Occ=0.000000D+00  E= 9.318282D-01  Symmetry=a1

 Vector   12  Occ=0.000000D+00  E= 1.016694D+00  Symmetry=b1

 Vector   13  Occ=0.000000D+00  E= 1.334240D+00  Symmetry=a1

 Vector   14  Occ=0.000000D+00  E= 1.530653D+00  Symmetry=a2

 Vector   15  Occ=0.000000D+00  E= 1.551065D+00  Symmetry=a1

 Vector   16  Occ=0.000000D+00  E= 1.644936D+00  Symmetry=b2

 Vector   17  Occ=0.000000D+00  E= 2.256944D+00  Symmetry=a1

 Vector   18  Occ=0.000000D+00  E= 2.269048D+00  Symmetry=b1

 Vector   19  Occ=0.000000D+00  E= 2.451263D+00  Symmetry=b1

 Vector   20  Occ=0.000000D+00  E= 2.642001D+00  Symmetry=a2

 Vector   21  Occ=0.000000D+00  E= 2.667690D+00  Symmetry=b2

 Vector   22  Occ=0.000000D+00  E= 3.029695D+00  Symmetry=a1

 Vector   23  Occ=0.000000D+00  E= 3.346830D+00  Symmetry=a1

 Vector   24  Occ=0.000000D+00  E= 3.532723D+00  Symmetry=b1

     Multipole analysis of the density
     ---------------------------------

     L   x y z        total         alpha         beta         nuclear
     -   - - -        -----         -----         ----         -------
     0   0 0 0     -0.000000     -5.000000     -5.000000     10.000000

     1   1 0 0      0.000000      0.000000      0.000000      0.000000
     1   0 1 0      0.000000      0.000000      0.000000      0.000000
     1   0 0 1     -0.802272     -0.401136     -0.401136      0.000000

     2   2 0 0     -3.176299     -3.647187     -3.647187      4.118075
     2   1 1 0      0.000000      0.000000      0.000000      0.000000
     2   1 0 1     -0.000000     -0.000000     -0.000000      0.000000
     2   0 2 0     -5.297956     -2.648978     -2.648978      0.000000
     2   0 1 1     -0.000000     -0.000000     -0.000000      0.000000

  Root   1 singlet a1             0.295732747 a.u.                8.0473 eV
     Dipole Oscillator Strength                    0.0158639128
  Root   2 singlet b2             0.368545121 a.u.               10.0286 eV
     Dipole Oscillator Strength                    0.0000000000
  Root   3 singlet b2             0.387240917 a.u.               10.5374 eV
     Dipole Oscillator Strength                    0.0922714036
  Root   4 singlet b2             0.466067700 a.u.               12.6824 eV
     Dipole Oscillator Strength                    0.0690672222
  Root   5 singlet b2             0.534631184 a.u.               14.5481 eV
     Dipole Oscillator Strength                    0.3894511770
  Root   6 singlet b2             0.652360298 a.u.               17.7516 eV
     Dipole Oscillator Strength                    0.2004074870
  Root   7 singlet b2             0.961792675 a.u.               26.1717 eV
     Dipole Oscillator Strength                    0.0000000000
  Root   8 singlet b2             1.015700630 a.u.               27.6386 eV
     Dipole Oscillator Strength                    0.0821245285
  Root   9 singlet b2             1.019936422 a.u.               27.7539 eV
     Dipole Oscillator Strength                    0.0325099625
  Root  10 singlet b2             1.074208231 a.u.               29.2307 eV
     Dipole Oscillator Strength                    0.1460055016
  Root   1 triplet a1             0.266945513 a.u.                7.2640 eV
  Root   2 triplet b2             0.343003661 a.u.                9.3336 eV
  Root   3 triplet b2             0.347552443 a.u.                9.4574 eV
  Root   4 triplet b2             0.414825337 a.u.               11.2880 eV
  Root   5 triplet b2             0.481298566 a.u.               13.0968 eV
  Root   6 triplet b2             0.541733951 a.u.               14.7413 eV
  Root   7 triplet b2             0.943063305 a.u.               25.6621 eV
  Root   8 triplet b2             0.948809816 a.u.               25.8184 eV
  Root   9 triplet b2             0.976581034 a.u.               26.5741 eV
  Root  10 triplet b2             0.997534495 a.u.               27.1443 eV
 Total times  cpu:        8.1s     wall:        8.1s
