============================== echo of input deck ==============================
echo
start ethane-excit

title "TDDFT on ethane"

memory 1000 mb

geometry
symmetry c1
C -0.5371  0.1483 -0.0004
C  0.9655  0.0799  0.0003
H -0.9004  1.0545 -0.5025
H -0.9797 -0.7117 -0.5198
H -0.9424  0.1567  1.0198
H  1.4100  0.9449  0.5095
H  1.3299 -0.8206  0.5119
H  1.3706  0.0614 -1.0198
end

basis
 C library 6-31G
 H library 6-31G
end

dft
 xc  becke88 1. lyp 1.   # BLYP functional
end

tddft
 nroots 10
end
task tddft energy
================================================================================

 Output coordinates in angstroms (scale by  1.889725989 to convert to a.u.)

  No.       Tag          Charge          X              Y              Z
 ---- ---------------- ---------- -------------- -------------- --------------
    1 C                    6.0000    -0.75145556     0.03416667    -0.00031667
    2 C                    6.0000     0.75114444    -0.03423333     0.00038333
    3 H                    1.0000    -1.11475556     0.94036667    -0.50241667
    4 H                    1.0000    -1.19405556    -0.82583333    -0.51971667
    5 H                    1.0000    -1.15675556     0.04256667     1.01988333
    6 H                    1.0000     1.19564444     0.83076667     0.50958333
    7 H                    1.0000     1.11554444    -0.93473333     0.51198333
    8 H                    1.0000     1.15624444    -0.05273333    -1.01971667

         Total DFT energy =      -79.747011281078

                       DFT Final Molecular Orbital Analysis
                       ------------------------------------

 Vector    1  Occ=2.000000D+00  E=-9.900267D+00

 Vector    2  Occ=2.000000D+00  E=-9.900204D+00

 Vector    3  Occ=2.000000D+00  E=-6.723334D-01

 Vector    4  Occ=2.000000D+00  E=-5.410078D-01

 Vector    5  Occ=2.000000D+00  E=-3.775020D-01

 Vector    6  Occ=2.000000D+00  E=-3.774362D-01

 Vector    7  Occ=2.000000D+00  E=-3.182030D-01

 Vector    8  Occ=2.000000D+00  E=-2.871460D-01

 Vector    9  Occ=2.000000D+00  E=-2.870438D-01

 Vector   10  Occ=0.000000D+00  E= 8.149249D-02

 Vector   11  Occ=0.000000D+00  E= 1.317183D-01

 Vector   12  Occ=0.000000D+00  E= 1.356737D-01

 Vector   13  Occ=0.000000D+00  E= 1.357163D-01

 Vector   14  Occ=0.000000D+00  E= 1.656315D-01

 Vector   15  Occ=0.000000D+00  E= 1.657288D-01

 Vector   16  Occ=0.000000D+00  E= 2.224886D-01

 Vector   17  Occ=0.000000D+00  E= 4.946587D-01

 Vector   18  Occ=0.000000D+00  E= 5.296422D-01

 Vector   19  Occ=0.000000D+00  E= 5.297378D-01

 Vector   20  Occ=0.000000D+00  E= 6.075489D-01

 Vector   21  Occ=0.000000D+00  E= 6.078854D-01

 Vector   22  Occ=0.000000D+00  E= 6.392314D-01

 Vector   23  Occ=0.000000D+00  E= 8.595636D-01

 Vector   24  Occ=0.000000D+00  E= 8.672191D-01

 Vector   25  Occ=0.000000D+00  E= 8.672843D-01

 Vector   26  Occ=0.000000D+00  E= 9.182368D-01

 Vector   27  Occ=0.000000D+00  E= 9.183901D-01

 Vector   28  Occ=0.000000D+00  E= 9.226468D-01

 Vector   29  Occ=0.000000D+00  E= 1.050513D+00

 Vector   30  Occ=0.000000D+00  E= 1.404121D+00

     Multipole analysis of the density
     ---------------------------------

     L   x y z        total         alpha         beta         nuclear
     -   - - -        -----         -----         ----         -------
     0   0 0 0     -0.000000     -9.000000     -9.000000     18.000000

     1   1 0 0      0.000142      0.000071      0.000071      0.000000
     1   0 1 0      0.000167      0.000084      0.000084      0.000000
     1   0 0 1     -0.000081     -0.000040     -0.000040     -0.000000

     2   2 0 0    -11.336473    -32.077791    -32.077791     52.819108
     2   1 1 0      0.014058      0.953662      0.953662     -1.893266
     2   1 0 1     -0.001014     -0.010187     -0.010187      0.019359
     2   0 2 0    -11.023762    -11.134197    -11.134197     11.244632
     2   0 1 1     -0.001181      0.001976      0.001976     -0.005132

  Root   1 singlet a              0.375450862 a.u.               10.2165 eV
     Dipole Oscillator Strength                    0.0000000615
  Root   2 singlet a              0.375552354 a.u.               10.2193 eV
     Dipole Oscillator Strength                    0.0000000771
  Root   3 singlet a              0.411233245 a.u.               11.1902 eV
     Dipole Oscillator Strength                    0.0000001296
  Root   4 singlet a              0.423027390 a.u.               11.5112 eV
     Dipole Oscillator Strength                    0.0000022659
  Root   5 singlet a              0.425306010 a.u.               11.5732 eV
     Dipole Oscillator Strength                    0.0146622357
  Root   6 singlet a              0.425413304 a.u.               11.5761 eV
     Dipole Oscillator Strength                    0.0144569312
  Root   7 singlet a              0.437404626 a.u.               11.9024 eV
     Dipole Oscillator Strength                    0.1290826708
  Root   8 singlet a              0.437455401 a.u.               11.9038 eV
     Dipole Oscillator Strength                    0.1290875173
  Root   9 singlet a              0.447150750 a.u.               12.1676 eV
     Dipole Oscillator Strength                    0.0841174469
  Root  10 singlet a              0.452780445 a.u.               12.3208 eV
     Dipole Oscillator Strength                    0.0000167306
  Root   1 triplet a              0.355675940 a.u.                9.6784 eV
  Root   2 triplet a              0.355776386 a.u.                9.6812 eV
  Root   3 triplet a              0.385350231 a.u.               10.4859 eV
  Root   4 triplet a              0.386497700 a.u.               10.5171 eV
  Root   5 triplet a              0.393684461 a.u.               10.7127 eV
  Root   6 triplet a              0.393702241 a.u.               10.7132 eV
  Root   7 triplet a              0.413426357 a.u.               11.2499 eV
  Root   8 triplet a              0.413533792 a.u.               11.2528 eV
  Root   9 triplet a              0.420147764 a.u.               11.4328 eV
  Root  10 triplet a              0.421183444 a.u.               11.4610 eV
 Total times  cpu:       14.8s     wall:       18.8s
